26
Doe Wheeler Stephans Haas Hertz Barrows RSF Sproul GBC MLK BWW MemorialStadium MainStacks Morgan Mulford Wellman Unit1 Unit2 Unit3 Blackwell BC Foothill ClarkKerr LakeMerrit GoldenStatePark TheRoof Soda
0 2 2 2 1 2 2 2 1 1 1 2 2 1 1 1 1 1 1 1 2 1 1 1 1 1 1 
2 0 1 1 2 2 1 2 2 2 2 2 2 2 1 2 1 2 1 2 1 1 1 2 1 2 2 
2 1 0 2 2 1 2 2 1 1 1 2 1 1 1 2 1 2 1 2 2 1 1 1 1 1 2 
2 1 2 0 2 2 1 2 1 1 2 1 2 2 1 2 1 2 2 2 2 2 2 2 2 2 2 
1 2 2 2 0 2 2 2 1 1 1 2 1 1 1 2 2 1 2 1 1 1 1 1 1 2 2 
2 2 1 2 2 0 1 2 1 1 2 1 2 1 2 2 1 1 1 1 2 1 1 1 1 1 1 
2 1 2 1 2 1 0 2 1 1 1 2 1 2 2 2 1 1 1 1 2 1 2 1 2 1 2 
2 2 2 2 2 2 2 0 2 2 2 2 2 1 2 1 2 1 2 1 1 1 1 2 2 2 1 
1 2 1 1 1 1 1 2 0 2 2 1 2 1 2 1 1 1 2 1 2 1 1 1 1 2 1 
1 2 1 1 1 1 1 2 2 0 1 2 1 1 2 1 2 2 1 2 1 1 1 1 1 1 2 
1 2 1 2 1 2 1 2 2 1 0 2 2 2 1 2 2 1 2 2 2 1 1 2 2 1 2 
2 2 2 1 2 1 2 2 1 2 2 0 2 1 2 1 2 1 2 1 2 2 2 2 1 2 2 
2 2 1 2 1 2 1 2 2 1 2 2 0 2 2 2 2 1 1 1 2 2 1 2 2 2 1 
1 2 1 2 1 1 2 1 1 1 2 1 2 0 1 1 1 1 2 1 2 2 2 2 1 2 2 
1 1 1 1 1 2 2 2 2 2 1 2 2 1 0 1 1 1 2 2 2 2 1 2 1 1 2 
1 2 2 2 2 2 2 1 1 1 2 1 2 1 1 0 2 2 2 2 2 2 1 2 2 2 1 
1 1 1 1 2 1 1 2 1 2 2 2 2 1 1 2 0 1 1 1 2 1 2 1 1 1 1 
1 2 2 2 1 1 1 1 1 2 1 1 1 1 1 2 1 0 2 1 1 2 1 2 2 2 2 
1 1 1 2 2 1 1 2 2 1 2 2 1 2 2 2 1 2 0 1 1 2 1 1 1 2 1 
1 2 2 2 1 1 1 1 1 2 2 1 1 1 2 2 1 1 1 0 1 2 1 2 2 1 2 
2 1 2 2 1 2 2 1 2 1 2 2 2 2 2 2 2 1 1 1 0 1 1 1 1 2 2 
1 1 1 2 1 1 1 1 1 1 1 2 2 2 2 2 1 2 2 2 1 0 1 1 2 2 1 
1 1 1 2 1 1 2 1 1 1 1 2 1 2 1 1 2 1 1 1 1 1 0 1 2 2 1 
1 2 1 2 1 1 1 2 1 1 2 2 2 2 2 2 1 2 1 2 1 1 1 0 1 2 1 
1 1 1 2 1 1 2 2 1 1 2 1 2 1 1 2 1 2 1 2 1 2 2 1 0 1 1 
1 2 1 2 2 1 1 2 2 1 1 2 2 2 1 2 1 2 2 1 2 2 2 2 1 0 2 
1 2 2 2 2 1 2 1 1 2 2 2 1 2 2 1 1 2 1 2 2 1 1 1 1 2 0 
