16
Boalt Kroeber Greek Morrison Stanley Campanile Birge CVStarr Zellerbach Eshleman Stephens RSF Blackwell Unit1 Maxwell Hargrove Dwinelle
0 2 4 4 7 8 9 12 9 9 14 12 16 15 13 15 7 
2 0 2 2 5 6 7 10 7 7 12 10 14 13 11 13 5 
4 2 0 1 4 5 6 9 6 6 11 9 13 12 10 12 4 
4 2 1 0 3 4 5 8 5 5 10 8 12 11 9 11 3 
7 5 4 3 0 5 6 9 6 6 11 9 13 12 10 12 4 
8 6 5 4 5 0 2 7 4 4 7 5 9 8 6 8 2 
9 7 6 5 6 2 0 7 4 4 6 4 8 7 5 7 2 
12 10 9 8 9 7 7 0 3 5 12 10 14 13 11 13 5 
9 7 6 5 6 4 4 3 0 2 9 7 11 10 8 10 2 
9 7 6 5 6 4 4 5 2 0 9 7 11 10 8 10 2 
14 12 11 10 11 7 6 12 9 9 0 6 2 2 5 7 7 
12 10 9 8 9 5 4 10 7 7 6 0 8 7 5 7 5 
16 14 13 12 13 9 8 14 11 11 2 8 0 2 6 8 9 
15 13 12 11 12 8 7 13 10 10 2 7 2 0 4 6 8 
13 11 10 9 10 6 5 11 8 8 5 5 6 4 0 2 6 
15 13 12 11 12 8 7 13 10 10 7 7 8 6 2 0 8 
7 5 4 3 4 2 2 5 2 2 7 5 9 8 6 8 0 
