26
IRLE MartinezCommons SproulPlaza Library Stephens Morrison StowPlaza Sproul FPF Koshland EarthLibrary ArtHistoryLibrary AlumniHouse Hilgard DonnerLaboratory Etcheverry NewspapersLibrary InternationalHouse EnergyBuilding Unit3 Jacobs MSRI Warren StudentUnion Wheeler FacultyClub
0 17253.349 25856.5378 29447.8611 57846.63 59177.585 71118.0044 87062.147 60590.1258 46446.8729 32501.6015 70706.2785 77259.9211 90052.0861 108544.7213 88689.4579 70327.111 63720.5689 72012.4301 68694.6895 81601.2995 44453.4488 32957.5567 29821.205 13166.1476 4403.0613 
17253.349 0 10325.6098 12677.1122 40963.4799 42053.0622 53945.3759 70095.9463 44709.1811 30851.1778 21832.6266 60813.8257 65582.8839 76182.1919 97275.8472 79397.2026 63274.4697 59741.2682 67877.5327 70429.4084 83996.8884 43949.167499999996 39701.085399999996 21637.1127 29655.3688 15824.1396 
25856.5378 10325.6098 0 12181.3973 36264.4334 36359.4001 45963.7639 61230.5217 34845.3682 20790.6701 13329.3037 51183.1793 55466.3794 65863.3478 87156.1612 69811.6794 54651.3332 52695.9438 60472.1976 65991.6868 79628.4606 39374.5318 39776.6897 14979.8132 38877.9517 23170.8878 
29447.8611 12677.1122 12181.3973 0 28411.1181 29805.4629 43064.653 60060.6317 37403.4202 25190.9843 25029.2171 60433.0787 63182.3723 70918.8304 94530.5223 78945.0941 65325.5787 64441.9228 71996.6586 78172.6176 91809.80739999999 51548.5601 50700.9463 27142.2629 40955.0579 28457.7101 
57846.63 40963.4799 36264.4334 28411.1181 0 4370.5863 21196.0571 38808.2695 30323.1452 29375.2035 43718.4112 64320.957 62216.7904 62022.7885 89683.8268 80520.9458 73550.7471 77827.4744 83605.7992 96207.2831 109392.7785 71142.5587 75617.2802 47851.07 68938.9851 56787.4452 
59177.585 42053.0622 36359.4001 29805.4629 4370.5863 0 17019.5153 34777.3537 26442.9613 26959.639 42559.3975 60800.8125 58309.7605 57710.871 85440.3001 76812.561 70378.4717 75233.7313 80737.9583 94150.4278 107196.7316 69556.2666 75092.2624 46888.1472 70700.6043 57810.7323 
71118.0044 53945.3759 45963.7639 43064.653 21196.0571 17019.5153 0 17879.485 19868.6311 29121.6897 47625.1772 53397.893 48254.9697 43426.6659 71841.6581 66652.8268 64709.7047 72448.0947 76410.5072 93399.3252 105580.7219 71641.2577 80896.6909 52337.7634 83532.3333 68963.7677 
87062.147 70095.9463 61230.5217 60060.6317 38808.2695 34777.3537 17879.485 0 28587.3536 41845.2432 60104.6348 53830.0922 45727.4287 34261.3936 62007.6225 62568.4484 66276.6151 76633.176 78759.8648 98752.7102 109783.3203 80157.9144 92387.0963 64765.0625 99734.4343 84395.4406 
60590.1258 44709.1811 34845.3682 37403.4202 30323.1452 26442.9613 19868.6311 28587.3536 0 14159.1246 31662.3626 34815.3627 31893.6452 34210.2749 60341.38 50396.4457 45386.651 52589.8054 56763.7588 73590.2205 85712.6732 52780.8865 63829.3686 36271.9972 73688.759 57526.869 
46446.8729 30851.1778 20790.6701 25190.9843 29375.2035 26959.639 29121.6897 41845.2432 14159.1246 0 18601.174 37401.2734 38488.9855 45925.1773 69516.84479999999 55298.9317 45003.7365 48454.2594 54400.3208 67237.6424 80237.5152 43279.8665 51788.3824 23324.2201 59613.0205 43369.1245 
32501.6015 21832.6266 13329.3037 25029.2171 43718.4112 42559.3975 47625.1772 60104.6348 31662.3626 18601.174 0 39204.9978 44892.6672 57778.6783 76402.8232 57702.8933 41559.2114 39442.5492 47142.8939 53959.1776 67520.554 27814.4504 33322.2812 4723.224 45443.3156 28588.4006 
70706.2785 60813.8257 51183.1793 60433.0787 64320.957 60800.8125 53397.893 53830.0922 34815.3627 37401.2734 39204.9978 0 10702.9989 29420.6275 38190.5405 19493.4242 12558.908 25012.9245 25177.2431 47232.7709 56679.3149 37787.3125 55959.1079 40974.1757 82979.1009 66461.2319 
77259.9211 65582.8839 55466.3794 63182.3723 62216.7904 58309.7605 48254.9697 45727.4287 31893.6452 38488.9855 44892.6672 10702.9989 0 18725.523 31694.6076 18502.8005 22596.0643 35648.9835 35077.2099 57768.2244 66648.4596 47878.711 65564.4427 47514.0528 89960.5803 73180.3949 
90052.0861 76182.1919 65863.3478 70918.8304 62022.7885 57710.871 43426.6659 34261.3936 34210.2749 45925.1773 57778.6783 29420.6275 18725.523 0 28487.2617 30281.8018 41091.6035 54361.7966 53280.27650000001 76345.6354 84744.8391 65791.7316 82711.8352 61294.7549 103129.7488 86302.8859 
108544.7213 97275.8472 87156.1612 94530.5223 89683.8268 85440.3001 71841.6581 62007.6225 60341.38 69516.84479999999 76402.8232 38190.5405 31694.6076 28487.2617 0 23106.2357 43652.9576 56727.1288 51485.7643 74750.0887 78807.8693 74327.1757 93100.3516 78723.5176 121021.8277 104373.4913 
88689.4579 79397.2026 69811.6794 78945.0941 80520.9458 76812.561 66652.8268 62568.4484 50396.4457 55298.9317 57702.8933 19493.4242 18502.8005 30281.8018 23106.2357 0 20546.7219 33621.9481 28663.7564 52287.5867 57837.7282 51660.5019 70539.4312 59191.9534 100634.5582 84377.66 
70327.111 63274.4697 54651.3332 65325.5787 73550.7471 70378.4717 64709.7047 66276.6151 45386.651 45003.7365 41559.2114 12558.908 22596.0643 41091.6035 43652.9576 20546.7219 0 13880.5223 12618.917 35271.5689 44166.7191 31148.2083 50046.0814 41929.151 81652.5816 65939.8569 
63720.5689 59741.2682 52695.9438 64441.9228 77827.4744 75233.7313 72448.0947 76633.176 52589.8054 48454.2594 39442.5492 25012.9245 35648.9835 54361.7966 56727.1288 33621.9481 13880.5223 0 8596.6693 22394.7696 33268.8283 20272.5786 38688.9403 38227.0307 73594.9073 59340.0415 
72012.4301 67877.5327 60472.1976 71996.6586 83605.7992 80737.9583 76410.5072 78759.8648 56763.7588 54400.3208 47142.8939 25177.2431 35077.2099 53280.27650000001 51485.7643 28663.7564 12618.917 8596.6693 0 23791.7335 31609.6595 28604.6778 46654.3951 46273.9592 82081.8572 67630.0216 
68694.6895 70429.4084 65991.6868 78172.6176 96207.2831 94150.4278 93399.3252 98752.7102 73590.2205 67237.6424 53959.1776 47232.7709 57768.2244 76345.6354 74750.0887 52287.5867 35271.5689 22394.7696 23791.7335 0 13640.0615 26661.8617 36900.6028 51081.1886 75879.4142 64719.3472 
81601.2995 83996.8884 79628.4606 91809.80739999999 109392.7785 107196.7316 105580.7219 109783.3203 85712.6732 80237.5152 67520.554 56679.3149 66648.4596 84744.8391 78807.8693 57837.7282 44166.7191 33268.8283 31609.6595 13640.0615 0 40300.0078 49140.9939 64708.3744 87777.1392 77742.6148 
44453.4488 43949.167499999996 39374.5318 51548.5601 71142.5587 69556.2666 71641.2577 80157.9144 52780.8865 43279.8665 27814.4504 37787.3125 47878.711 65791.7316 74327.1757 51660.5019 31148.2083 20272.5786 28604.6778 26661.8617 40300.0078 0 18902.8919 24553.6593 53700.361 40175.9479 
32957.5567 39701.085399999996 39776.6897 50700.9463 75617.2802 75092.2624 80896.6909 92387.0963 63829.3686 51788.3824 33322.2812 55959.1079 65564.4427 82711.8352 93100.3516 70539.4312 50046.0814 38688.9403 46654.3951 36900.6028 49140.9939 18902.8919 0 28654.6634 39093.4976 29496.5126 
29821.205 21637.1127 14979.8132 27142.2629 47851.07 46888.1472 52337.7634 64765.0625 36271.9972 23324.2201 4723.224 40974.1757 47514.0528 61294.7549 78723.5176 59191.9534 41929.151 38227.0307 46273.9592 51081.1886 64708.3744 24553.6593 28654.6634 0 42448.7603 25827.051 
13166.1476 29655.3688 38877.9517 40955.0579 68938.9851 70700.6043 83532.3333 99734.4343 73688.759 59613.0205 45443.3156 82979.1009 89960.5803 103129.7488 121021.8277 100634.5582 81652.5816 73594.9073 82081.8572 75879.4142 87777.1392 53700.361 39093.4976 42448.7603 0 16855.3172 
4403.0613 15824.1396 23170.8878 28457.7101 56787.4452 57810.7323 68963.7677 84395.4406 57526.869 43369.1245 28588.4006 66461.2319 73180.3949 86302.8859 104373.4913 84377.66 65939.8569 59340.0415 67630.0216 64719.3472 77742.6148 40175.9479 29496.5126 25827.051 16855.3172 0 
