23
Doe Hertz GBC Stephans Wheeler Haas RSF Barrows MLK BWW Mulford Morgan Sproul Wellman MemorialStadium Unit2 MainStacks Unit3 Unit1 Blackwell BC GoldenStatePark Soda
0 1.0 1.0 2.0 2.0 2.0 2.0 2.0 1.0 1.0 1.0 1.0 2.0 1.0 2.0 1.0 2.0 1.0 1.0 1.0 2.0 1.0 1.0 
1.0 0 1.0 2.0 2.0 2.0 2.0 2.0 1.0 1.0 1.0 1.0 2.0 2.0 2.0 1.0 1.0 2.0 2.0 1.0 1.0 1.0 2.0 
1.0 1.0 0 1.0 2.0 1.0 1.0 1.0 2.0 2.0 2.0 1.0 2.0 1.0 1.0 1.0 2.0 2.0 1.0 1.0 2.0 1.0 1.0 
2.0 2.0 1.0 0 1.0 2.0 2.0 1.0 1.0 1.0 1.0 1.0 2.0 2.0 2.0 2.0 1.0 1.0 1.0 2.0 2.0 1.0 2.0 
2.0 2.0 2.0 1.0 0 1.0 1.0 2.0 2.0 2.0 1.0 2.0 2.0 2.0 2.0 2.0 2.0 1.0 1.0 2.0 1.0 1.0 2.0 
2.0 2.0 1.0 2.0 1.0 0 1.0 2.0 1.0 2.0 1.0 2.0 2.0 2.0 1.0 2.0 2.0 2.0 1.0 2.0 2.0 2.0 2.0 
2.0 2.0 1.0 2.0 1.0 1.0 0 1.0 1.0 1.0 2.0 2.0 2.0 2.0 2.0 1.0 1.0 1.0 1.0 1.0 2.0 2.0 2.0 
2.0 2.0 1.0 1.0 2.0 2.0 1.0 0 1.0 2.0 2.0 1.0 2.0 2.0 1.0 1.0 2.0 1.0 1.0 1.0 2.0 1.0 1.0 
1.0 1.0 2.0 1.0 2.0 1.0 1.0 1.0 0 1.0 2.0 1.0 2.0 1.0 2.0 2.0 1.0 1.0 2.0 2.0 1.0 1.0 2.0 
1.0 1.0 2.0 1.0 2.0 2.0 1.0 2.0 1.0 0 1.0 2.0 2.0 2.0 2.0 1.0 2.0 2.0 2.0 2.0 2.0 2.0 2.0 
1.0 1.0 2.0 1.0 1.0 1.0 2.0 2.0 2.0 1.0 0 1.0 2.0 1.0 2.0 1.0 2.0 2.0 1.0 2.0 2.0 1.0 2.0 
1.0 1.0 1.0 1.0 2.0 2.0 2.0 1.0 1.0 2.0 1.0 0 1.0 1.0 1.0 1.0 2.0 2.0 1.0 1.0 2.0 1.0 2.0 
2.0 2.0 2.0 2.0 2.0 2.0 2.0 2.0 2.0 2.0 2.0 1.0 0 1.0 2.0 1.0 2.0 2.0 2.0 1.0 1.0 2.0 1.0 
1.0 2.0 1.0 2.0 2.0 2.0 2.0 2.0 1.0 2.0 1.0 1.0 1.0 0 1.0 2.0 2.0 2.0 2.0 2.0 2.0 2.0 1.0 
2.0 2.0 1.0 2.0 2.0 1.0 2.0 1.0 2.0 2.0 2.0 1.0 2.0 1.0 0 1.0 2.0 2.0 2.0 1.0 2.0 1.0 2.0 
1.0 1.0 1.0 2.0 2.0 2.0 1.0 1.0 2.0 1.0 1.0 1.0 1.0 2.0 1.0 0 1.0 2.0 1.0 1.0 1.0 2.0 2.0 
2.0 1.0 2.0 1.0 2.0 2.0 1.0 2.0 1.0 2.0 2.0 2.0 2.0 2.0 2.0 1.0 0 1.0 2.0 1.0 2.0 2.0 1.0 
1.0 2.0 2.0 1.0 1.0 2.0 1.0 1.0 1.0 2.0 2.0 2.0 2.0 2.0 2.0 2.0 1.0 0 1.0 1.0 1.0 1.0 1.0 
1.0 2.0 1.0 1.0 1.0 1.0 1.0 1.0 2.0 2.0 1.0 1.0 2.0 2.0 2.0 1.0 2.0 1.0 0 1.0 2.0 1.0 1.0 
1.0 1.0 1.0 2.0 2.0 2.0 1.0 1.0 2.0 2.0 2.0 1.0 1.0 2.0 1.0 1.0 1.0 1.0 1.0 0 1.0 2.0 2.0 
2.0 1.0 2.0 2.0 1.0 2.0 2.0 2.0 1.0 2.0 2.0 2.0 1.0 2.0 2.0 1.0 2.0 1.0 2.0 1.0 0 1.0 2.0 
1.0 1.0 1.0 1.0 1.0 2.0 2.0 1.0 1.0 2.0 1.0 1.0 2.0 2.0 1.0 2.0 2.0 1.0 1.0 2.0 1.0 0 1.0 
1.0 2.0 1.0 2.0 2.0 2.0 2.0 1.0 2.0 2.0 2.0 2.0 1.0 1.0 2.0 2.0 1.0 1.0 1.0 2.0 2.0 1.0 0 
